    1C
    1UUSER                                                              
    1UDATE              31.december.2018                                
    1UTIME              14:03:48                                        
    1UHOST                                                              
    1UPGM               CalculiX                                        
    1UVERSION           Version 2.15                             
    1UCOMPILETIME       niedz., 16 gru 2018 14:14:23                    
    1UDIR                                                               
    1UDBN                                                               
    1UMAT    1EL                                                        
    2C                            20                                     1
 -1         1 1.00000E+00 1.00000E+00 0.00000E+00
 -1         2 1.00000E+00 0.00000E+00 0.00000E+00
 -1         3 1.00000E+00 0.00000E+00 1.00000E+00
 -1         4 1.00000E+00 1.00000E+00 1.00000E+00
 -1         5 0.00000E+00 1.00000E+00 0.00000E+00
 -1         6 0.00000E+00 0.00000E+00 0.00000E+00
 -1         7 0.00000E+00 0.00000E+00 1.00000E+00
 -1         8 0.00000E+00 1.00000E+00 1.00000E+00
 -1         9 1.00000E+00 5.00000E-01 0.00000E+00
 -1        10 1.00000E+00 0.00000E+00 5.00000E-01
 -1        11 1.00000E+00 5.00000E-01 1.00000E+00
 -1        12 1.00000E+00 1.00000E+00 5.00000E-01
 -1        13 5.00000E-01 1.00000E+00 0.00000E+00
 -1        14 5.00000E-01 0.00000E+00 0.00000E+00
 -1        15 5.00000E-01 0.00000E+00 1.00000E+00
 -1        16 5.00000E-01 1.00000E+00 1.00000E+00
 -1        17 0.00000E+00 5.00000E-01 0.00000E+00
 -1        18 0.00000E+00 0.00000E+00 5.00000E-01
 -1        19 0.00000E+00 5.00000E-01 1.00000E+00
 -1        20 0.00000E+00 1.00000E+00 5.00000E-01
 -3
    3C                             1                                     1
 -1         1    4    0    1
 -2         1         2         3         4         5         6         7         8         9        10
 -2        11        12        13        14        15        16        17        18        19        20
 -3
    1PSTEP                         1           1           1          
  100CL  101 16.13597621          20                     0    1           1
 -4  DISP        4    1
 -5  D1          1    2    1    0
 -5  D2          1    2    2    0
 -5  D3          1    2    3    0
 -5  ALL         1    2    0    0    1ALL
 -1         1 0.00000E+00 0.00000E+00 0.00000E+00
 -1         2 0.00000E+00 0.00000E+00 0.00000E+00
 -1         3 0.00000E+00 0.00000E+00 2.00000E-03
 -1         4 0.00000E+00 0.00000E+00 2.00000E-03
 -1         5 0.00000E+00 0.00000E+00 0.00000E+00
 -1         6 0.00000E+00 0.00000E+00 0.00000E+00
 -1         7 0.00000E+00 0.00000E+00 2.00000E-03
 -1         8 0.00000E+00 0.00000E+00 2.00000E-03
 -1         9 0.00000E+00 0.00000E+00 0.00000E+00
 -1        10 0.00000E+00 0.00000E+00 1.00000E-03
 -1        11 0.00000E+00 0.00000E+00 2.00000E-03
 -1        12 0.00000E+00 0.00000E+00 1.00000E-03
 -1        13 0.00000E+00 0.00000E+00 0.00000E+00
 -1        14 0.00000E+00 0.00000E+00 0.00000E+00
 -1        15 0.00000E+00 0.00000E+00 2.00000E-03
 -1        16 0.00000E+00 0.00000E+00 2.00000E-03
 -1        17 0.00000E+00 0.00000E+00 0.00000E+00
 -1        18 0.00000E+00 0.00000E+00 1.00000E-03
 -1        19 0.00000E+00 0.00000E+00 2.00000E-03
 -1        20 0.00000E+00 0.00000E+00 1.00000E-03
 -3
    1PSTEP                         2           1           1          
  100CL  101 16.13597621          20                     0    1           1
 -4  STRESS      6    1
 -5  SXX         1    4    1    1
 -5  SYY         1    4    2    2
 -5  SZZ         1    4    3    3
 -5  SXY         1    4    1    2
 -5  SYZ         1    4    2    3
 -5  SZX         1    4    3    1
 -1         1 1.55552E+02 1.55552E+02 2.88872E+02 0.00000E+00 2.75013E-14 4.79346E-14
 -1         2 1.55552E+02 1.55552E+02 2.88872E+02 0.00000E+00-4.32531E-14-5.39091E-14
 -1         3 1.55552E+02 1.55552E+02 2.88872E+02 0.00000E+00-6.72714E-15-7.98949E-14
 -1         4 1.55552E+02 1.55552E+02 2.88872E+02 0.00000E+00-1.53899E-14 1.17415E-13
 -1         5 1.55552E+02 1.55552E+02 2.88872E+02 0.00000E+00 1.97426E-14-1.68805E-14
 -1         6 1.55552E+02 1.55552E+02 2.88872E+02 0.00000E+00-1.42562E-14 5.77835E-16
 -1         7 1.55552E+02 1.55552E+02 2.88872E+02 0.00000E+00 1.28810E-13 9.41996E-14
 -1         8 1.55552E+02 1.55552E+02 2.88872E+02 0.00000E+00-1.95650E-16-2.50988E-14
 -1         9 1.55566E+02 1.55566E+02 2.88898E+02 0.00000E+00-2.79179E-14-1.36386E-14
 -1        10 1.55566E+02 1.55566E+02 2.88898E+02 0.00000E+00 2.93584E-14 2.56815E-14
 -1        11 1.55566E+02 1.55566E+02 2.88898E+02 0.00000E+00 1.69720E-14 1.49166E-14
 -1        12 1.55566E+02 1.55566E+02 2.88898E+02 0.00000E+00 1.61373E-14 1.14516E-14
 -1        13 1.55566E+02 1.55566E+02 2.88898E+02 0.00000E+00-1.14729E-14-1.68915E-15
 -1        14 1.55566E+02 1.55566E+02 2.88898E+02 0.00000E+00 2.73421E-14 5.96046E-15
 -1        15 1.55566E+02 1.55566E+02 2.88898E+02 0.00000E+00-7.75660E-14 1.66168E-14
 -1        16 1.55566E+02 1.55566E+02 2.88898E+02 0.00000E+00 2.96749E-14 2.78642E-14
 -1        17 1.55566E+02 1.55566E+02 2.88898E+02 0.00000E+00-3.24456E-15 1.51661E-14
 -1        18 1.55566E+02 1.55566E+02 2.88898E+02 0.00000E+00 4.06300E-14-5.23405E-14
 -1        19 1.55566E+02 1.55566E+02 2.88898E+02 0.00000E+00 3.48699E-14-7.47363E-15
 -1        20 1.55566E+02 1.55566E+02 2.88898E+02 0.00000E+00 1.53624E-14 2.97954E-14
 -3
    1PSTEP                         3           1           1          
  100CL  101 16.13597621          20                     0    1           1
 -4  TOSTRAIN    6    1
 -5  EXX         1    4    1    1
 -5  EYY         1    4    2    2
 -5  EZZ         1    4    3    3
 -5  EXY         1    4    1    2
 -5  EYZ         1    4    2    3
 -5  EZX         1    4    3    1
 -1         1 0.00000E+00 0.00000E+00 1.99992E-03 0.00000E+00 4.12546E-19 7.19066E-19
 -1         2 0.00000E+00 0.00000E+00 1.99992E-03 0.00000E+00-6.48839E-19-8.08690E-19
 -1         3 0.00000E+00 0.00000E+00 1.99992E-03 0.00000E+00-1.00914E-19-1.19850E-18
 -1         4 0.00000E+00 0.00000E+00 1.99992E-03 0.00000E+00-2.30863E-19 1.76134E-18
 -1         5 0.00000E+00 0.00000E+00 1.99992E-03 0.00000E+00 2.96159E-19-2.53224E-19
 -1         6 0.00000E+00 0.00000E+00 1.99992E-03 0.00000E+00-2.13856E-19 8.66809E-21
 -1         7 0.00000E+00 0.00000E+00 1.99992E-03 0.00000E+00 1.93228E-18 1.41309E-18
 -1         8 0.00000E+00 0.00000E+00 1.99992E-03 0.00000E+00-2.93494E-21-3.76507E-19
 -1         9 0.00000E+00 0.00000E+00 2.00010E-03 0.00000E+00-4.18795E-19-2.04593E-19
 -1        10 0.00000E+00 0.00000E+00 2.00010E-03 0.00000E+00 4.40404E-19 3.85247E-19
 -1        11 0.00000E+00 0.00000E+00 2.00010E-03 0.00000E+00 2.54597E-19 2.23763E-19
 -1        12 0.00000E+00 0.00000E+00 2.00010E-03 0.00000E+00 2.42075E-19 1.71784E-19
 -1        13 0.00000E+00 0.00000E+00 2.00010E-03 0.00000E+00-1.72104E-19-2.53389E-20
 -1        14 0.00000E+00 0.00000E+00 2.00010E-03 0.00000E+00 4.10158E-19 8.94127E-20
 -1        15 0.00000E+00 0.00000E+00 2.00010E-03 0.00000E+00-1.16356E-18 2.49269E-19
 -1        16 0.00000E+00 0.00000E+00 2.00010E-03 0.00000E+00 4.45153E-19 4.17991E-19
 -1        17 0.00000E+00 0.00000E+00 2.00010E-03 0.00000E+00-4.86716E-20 2.27507E-19
 -1        18 0.00000E+00 0.00000E+00 2.00010E-03 0.00000E+00 6.09490E-19-7.85158E-19
 -1        19 0.00000E+00 0.00000E+00 2.00010E-03 0.00000E+00 5.23083E-19-1.12112E-19
 -1        20 0.00000E+00 0.00000E+00 2.00010E-03 0.00000E+00 2.30452E-19 4.46960E-19
 -3
    1PSTEP                         4           1           1          
  100CL  101 16.13597621          20                     0    1           1
 -4  FORC        4    1
 -5  F1          1    2    1    0
 -5  F2          1    2    2    0
 -5  F3          1    2    3    0
 -5  ALL         1    2    0    0    1ALL
 -1         1-1.29632E+01-1.29632E+01 2.40736E+01
 -1         2-1.29632E+01 1.29632E+01 2.40736E+01
 -1         3-1.29632E+01 1.29632E+01-2.40736E+01
 -1         4-1.29632E+01-1.29632E+01-2.40736E+01
 -1         5 1.29632E+01-1.29632E+01 2.40736E+01
 -1         6 1.29632E+01 1.29632E+01 2.40736E+01
 -1         7 1.29632E+01 1.29632E+01-2.40736E+01
 -1         8 1.29632E+01-1.29632E+01-2.40736E+01
 -1         9 5.18528E+01-8.59411E-15-9.62944E+01
 -1        10 5.18528E+01-5.18528E+01 1.11022E-15
 -1        11 5.18528E+01 4.93037E-15 9.62944E+01
 -1        12 5.18528E+01 5.18528E+01 2.13440E-14
 -1        13-1.14667E-14 5.18528E+01-9.62944E+01
 -1        14 5.96983E-15-5.18528E+01-9.62944E+01
 -1        15 3.80013E-15-5.18528E+01 9.62944E+01
 -1        16-2.85515E-15 5.18528E+01 9.62944E+01
 -1        17-5.18528E+01-3.57377E-16-9.62944E+01
 -1        18-5.18528E+01-5.18528E+01 0.00000E+00
 -1        19-5.18528E+01 3.57377E-16 9.62944E+01
 -1        20-5.18528E+01 5.18528E+01 9.32587E-15
 -3
    1PSTEP                         5           1           1          
  100CL  101 16.13597621          20                     0    1           1
 -4  ERROR       1    1
 -5  STR(%)      1    1    0    0
 -1         1 7.04534E-15
 -1         2 7.04534E-15
 -1         3 7.04534E-15
 -1         4 7.04534E-15
 -1         5 7.04534E-15
 -1         6 7.04534E-15
 -1         7 7.04534E-15
 -1         8 7.04534E-15
 -1         9 7.04534E-15
 -1        10 7.04534E-15
 -1        11 7.04534E-15
 -1        12 7.04534E-15
 -1        13 7.04534E-15
 -1        14 7.04534E-15
 -1        15 7.04534E-15
 -1        16 7.04534E-15
 -1        17 7.04534E-15
 -1        18 7.04534E-15
 -1        19 7.04534E-15
 -1        20 7.04534E-15
 -3
    1PSTEP                         6           2           1          
  100CL  102 32.27195241          20                     0    2           1
 -4  DISP        4    1
 -5  D1          1    2    1    0
 -5  D2          1    2    2    0
 -5  D3          1    2    3    0
 -5  ALL         1    2    0    0    1ALL
 -1         1 0.00000E+00 0.00000E+00 0.00000E+00
 -1         2 0.00000E+00 0.00000E+00 0.00000E+00
 -1         3 0.00000E+00 0.00000E+00 2.00000E-03
 -1         4 0.00000E+00 0.00000E+00 2.00000E-03
 -1         5 0.00000E+00 0.00000E+00 0.00000E+00
 -1         6 0.00000E+00 0.00000E+00 0.00000E+00
 -1         7 0.00000E+00 0.00000E+00 2.00000E-03
 -1         8 0.00000E+00 0.00000E+00 2.00000E-03
 -1         9 0.00000E+00 0.00000E+00 0.00000E+00
 -1        10 0.00000E+00 0.00000E+00 1.00000E-03
 -1        11 0.00000E+00 0.00000E+00 2.00000E-03
 -1        12 0.00000E+00 0.00000E+00 1.00000E-03
 -1        13 0.00000E+00 0.00000E+00 0.00000E+00
 -1        14 0.00000E+00 0.00000E+00 0.00000E+00
 -1        15 0.00000E+00 0.00000E+00 2.00000E-03
 -1        16 0.00000E+00 0.00000E+00 2.00000E-03
 -1        17 0.00000E+00 0.00000E+00 0.00000E+00
 -1        18 0.00000E+00 0.00000E+00 1.00000E-03
 -1        19 0.00000E+00 0.00000E+00 2.00000E-03
 -1        20 0.00000E+00 0.00000E+00 1.00000E-03
 -3
    1PSTEP                         7           2           1          
  100CL  102 32.27195241          20                     0    2           1
 -4  STRESS      6    1
 -5  SXX         1    4    1    1
 -5  SYY         1    4    2    2
 -5  SZZ         1    4    3    3
 -5  SXY         1    4    1    2
 -5  SYZ         1    4    2    3
 -5  SZX         1    4    3    1
 -1         1 1.55555E+02 1.55555E+02 2.88866E+02 0.00000E+00 2.74995E-14 4.79315E-14
 -1         2 1.55555E+02 1.55555E+02 2.88866E+02 0.00000E+00-4.32503E-14-5.39056E-14
 -1         3 1.55555E+02 1.55555E+02 2.88866E+02 0.00000E+00-6.72671E-15-7.98898E-14
 -1         4 1.55555E+02 1.55555E+02 2.88866E+02 0.00000E+00-1.53889E-14 1.17407E-13
 -1         5 1.55555E+02 1.55555E+02 2.88866E+02 0.00000E+00 1.97413E-14-1.68794E-14
 -1         6 1.55555E+02 1.55555E+02 2.88866E+02 0.00000E+00-1.42552E-14 5.77798E-16
 -1         7 1.55555E+02 1.55555E+02 2.88866E+02 0.00000E+00 1.28802E-13 9.41935E-14
 -1         8 1.55555E+02 1.55555E+02 2.88866E+02 0.00000E+00-1.95637E-16-2.50972E-14
 -1         9 1.55569E+02 1.55569E+02 2.88892E+02 0.00000E+00-2.79161E-14-1.36378E-14
 -1        10 1.55569E+02 1.55569E+02 2.88892E+02 0.00000E+00 2.93565E-14 2.56798E-14
 -1        11 1.55569E+02 1.55569E+02 2.88892E+02 0.00000E+00 1.69709E-14 1.49156E-14
 -1        12 1.55569E+02 1.55569E+02 2.88892E+02 0.00000E+00 1.61362E-14 1.14508E-14
 -1        13 1.55569E+02 1.55569E+02 2.88892E+02 0.00000E+00-1.14721E-14-1.68904E-15
 -1        14 1.55569E+02 1.55569E+02 2.88892E+02 0.00000E+00 2.73404E-14 5.96007E-15
 -1        15 1.55569E+02 1.55569E+02 2.88892E+02 0.00000E+00-7.75609E-14 1.66158E-14
 -1        16 1.55569E+02 1.55569E+02 2.88892E+02 0.00000E+00 2.96730E-14 2.78624E-14
 -1        17 1.55569E+02 1.55569E+02 2.88892E+02 0.00000E+00-3.24435E-15 1.51652E-14
 -1        18 1.55569E+02 1.55569E+02 2.88892E+02 0.00000E+00 4.06274E-14-5.23371E-14
 -1        19 1.55569E+02 1.55569E+02 2.88892E+02 0.00000E+00 3.48677E-14-7.47314E-15
 -1        20 1.55569E+02 1.55569E+02 2.88892E+02 0.00000E+00 1.53614E-14 2.97935E-14
 -3
    1PSTEP                         8           2           1          
  100CL  102 32.27195241          20                     0    2           1
 -4  TOSTRAIN    6    1
 -5  EXX         1    4    1    1
 -5  EYY         1    4    2    2
 -5  EZZ         1    4    3    3
 -5  EXY         1    4    1    2
 -5  EYZ         1    4    2    3
 -5  EZX         1    4    3    1
 -1         1 0.00000E+00 0.00000E+00 1.99992E-03 0.00000E+00 4.12546E-19 7.19066E-19
 -1         2 0.00000E+00 0.00000E+00 1.99992E-03 0.00000E+00-6.48839E-19-8.08690E-19
 -1         3 0.00000E+00 0.00000E+00 1.99992E-03 0.00000E+00-1.00914E-19-1.19850E-18
 -1         4 0.00000E+00 0.00000E+00 1.99992E-03 0.00000E+00-2.30863E-19 1.76134E-18
 -1         5 0.00000E+00 0.00000E+00 1.99992E-03 0.00000E+00 2.96159E-19-2.53224E-19
 -1         6 0.00000E+00 0.00000E+00 1.99992E-03 0.00000E+00-2.13856E-19 8.66809E-21
 -1         7 0.00000E+00 0.00000E+00 1.99992E-03 0.00000E+00 1.93228E-18 1.41309E-18
 -1         8 0.00000E+00 0.00000E+00 1.99992E-03 0.00000E+00-2.93494E-21-3.76507E-19
 -1         9 0.00000E+00 0.00000E+00 2.00010E-03 0.00000E+00-4.18795E-19-2.04593E-19
 -1        10 0.00000E+00 0.00000E+00 2.00010E-03 0.00000E+00 4.40404E-19 3.85247E-19
 -1        11 0.00000E+00 0.00000E+00 2.00010E-03 0.00000E+00 2.54597E-19 2.23763E-19
 -1        12 0.00000E+00 0.00000E+00 2.00010E-03 0.00000E+00 2.42075E-19 1.71784E-19
 -1        13 0.00000E+00 0.00000E+00 2.00010E-03 0.00000E+00-1.72104E-19-2.53389E-20
 -1        14 0.00000E+00 0.00000E+00 2.00010E-03 0.00000E+00 4.10158E-19 8.94127E-20
 -1        15 0.00000E+00 0.00000E+00 2.00010E-03 0.00000E+00-1.16356E-18 2.49269E-19
 -1        16 0.00000E+00 0.00000E+00 2.00010E-03 0.00000E+00 4.45153E-19 4.17991E-19
 -1        17 0.00000E+00 0.00000E+00 2.00010E-03 0.00000E+00-4.86716E-20 2.27507E-19
 -1        18 0.00000E+00 0.00000E+00 2.00010E-03 0.00000E+00 6.09490E-19-7.85158E-19
 -1        19 0.00000E+00 0.00000E+00 2.00010E-03 0.00000E+00 5.23083E-19-1.12112E-19
 -1        20 0.00000E+00 0.00000E+00 2.00010E-03 0.00000E+00 2.30452E-19 4.46960E-19
 -3
    1PSTEP                         9           2           1          
  100CL  102 32.27195241          20                     0    2           1
 -4  FORC        4    1
 -5  F1          1    2    1    0
 -5  F2          1    2    2    0
 -5  F3          1    2    3    0
 -5  ALL         1    2    0    0    1ALL
 -1         1-1.29634E+01-1.29634E+01 2.40731E+01
 -1         2-1.29634E+01 1.29634E+01 2.40731E+01
 -1         3-1.29634E+01 1.29634E+01-2.40731E+01
 -1         4-1.29634E+01-1.29634E+01-2.40731E+01
 -1         5 1.29634E+01-1.29634E+01 2.40731E+01
 -1         6 1.29634E+01 1.29634E+01 2.40731E+01
 -1         7 1.29634E+01 1.29634E+01-2.40731E+01
 -1         8 1.29634E+01-1.29634E+01-2.40731E+01
 -1         9 5.18538E+01-7.84471E-15-9.62924E+01
 -1        10 5.18538E+01-5.18538E+01 1.53211E-14
 -1        11 5.18538E+01 4.48628E-15 9.62924E+01
 -1        12 5.18538E+01 5.18538E+01 2.65343E-14
 -1        13-4.77763E-15 5.18538E+01-9.62924E+01
 -1        14 1.24091E-14-5.18538E+01-9.62924E+01
 -1        15-1.52896E-15-5.18538E+01 9.62924E+01
 -1        16-3.74333E-15 5.18538E+01 9.62924E+01
 -1        17-5.18538E+01 5.30825E-16-9.62924E+01
 -1        18-5.18538E+01-5.18538E+01 1.77636E-15
 -1        19-5.18538E+01 3.91007E-15 9.62924E+01
 -1        20-5.18538E+01 5.18538E+01 5.99520E-15
 -3
    1PSTEP                        10           2           1          
  100CL  102 32.27195241          20                     0    2           1
 -4  ERROR       1    1
 -5  STR(%)      1    1    0    0
 -1         1 6.03898E-15
 -1         2 6.03898E-15
 -1         3 6.03898E-15
 -1         4 6.03898E-15
 -1         5 6.03898E-15
 -1         6 6.03898E-15
 -1         7 6.03898E-15
 -1         8 6.03898E-15
 -1         9 6.03898E-15
 -1        10 6.03898E-15
 -1        11 6.03898E-15
 -1        12 6.03898E-15
 -1        13 6.03898E-15
 -1        14 6.03898E-15
 -1        15 6.03898E-15
 -1        16 6.03898E-15
 -1        17 6.03898E-15
 -1        18 6.03898E-15
 -1        19 6.03898E-15
 -1        20 6.03898E-15
 -3
    1PSTEP                        11           3           1          
  100CL  103 56.47591672          20                     0    3           1
 -4  DISP        4    1
 -5  D1          1    2    1    0
 -5  D2          1    2    2    0
 -5  D3          1    2    3    0
 -5  ALL         1    2    0    0    1ALL
 -1         1 0.00000E+00 0.00000E+00 0.00000E+00
 -1         2 0.00000E+00 0.00000E+00 0.00000E+00
 -1         3 0.00000E+00 0.00000E+00 2.00000E-03
 -1         4 0.00000E+00 0.00000E+00 2.00000E-03
 -1         5 0.00000E+00 0.00000E+00 0.00000E+00
 -1         6 0.00000E+00 0.00000E+00 0.00000E+00
 -1         7 0.00000E+00 0.00000E+00 2.00000E-03
 -1         8 0.00000E+00 0.00000E+00 2.00000E-03
 -1         9 0.00000E+00 0.00000E+00 0.00000E+00
 -1        10 0.00000E+00 0.00000E+00 1.00000E-03
 -1        11 0.00000E+00 0.00000E+00 2.00000E-03
 -1        12 0.00000E+00 0.00000E+00 1.00000E-03
 -1        13 0.00000E+00 0.00000E+00 0.00000E+00
 -1        14 0.00000E+00 0.00000E+00 0.00000E+00
 -1        15 0.00000E+00 0.00000E+00 2.00000E-03
 -1        16 0.00000E+00 0.00000E+00 2.00000E-03
 -1        17 0.00000E+00 0.00000E+00 0.00000E+00
 -1        18 0.00000E+00 0.00000E+00 1.00000E-03
 -1        19 0.00000E+00 0.00000E+00 2.00000E-03
 -1        20 0.00000E+00 0.00000E+00 1.00000E-03
 -3
    1PSTEP                        12           3           1          
  100CL  103 56.47591672          20                     0    3           1
 -4  STRESS      6    1
 -5  SXX         1    4    1    1
 -5  SYY         1    4    2    2
 -5  SZZ         1    4    3    3
 -5  SXY         1    4    1    2
 -5  SYZ         1    4    2    3
 -5  SZX         1    4    3    1
 -1         1 1.55559E+02 1.55559E+02 2.88857E+02 0.00000E+00 2.74968E-14 4.79268E-14
 -1         2 1.55559E+02 1.55559E+02 2.88857E+02 0.00000E+00-4.32461E-14-5.39004E-14
 -1         3 1.55559E+02 1.55559E+02 2.88857E+02 0.00000E+00-6.72605E-15-7.98820E-14
 -1         4 1.55559E+02 1.55559E+02 2.88857E+02 0.00000E+00-1.53874E-14 1.17396E-13
 -1         5 1.55559E+02 1.55559E+02 2.88857E+02 0.00000E+00 1.97394E-14-1.68778E-14
 -1         6 1.55559E+02 1.55559E+02 2.88857E+02 0.00000E+00-1.42538E-14 5.77742E-16
 -1         7 1.55559E+02 1.55559E+02 2.88857E+02 0.00000E+00 1.28790E-13 9.41843E-14
 -1         8 1.55559E+02 1.55559E+02 2.88857E+02 0.00000E+00-1.95618E-16-2.50948E-14
 -1         9 1.55573E+02 1.55573E+02 2.88883E+02 0.00000E+00-2.79133E-14-1.36364E-14
 -1        10 1.55573E+02 1.55573E+02 2.88883E+02 0.00000E+00 2.93536E-14 2.56773E-14
 -1        11 1.55573E+02 1.55573E+02 2.88883E+02 0.00000E+00 1.69693E-14 1.49142E-14
 -1        12 1.55573E+02 1.55573E+02 2.88883E+02 0.00000E+00 1.61346E-14 1.14497E-14
 -1        13 1.55573E+02 1.55573E+02 2.88883E+02 0.00000E+00-1.14710E-14-1.68888E-15
 -1        14 1.55573E+02 1.55573E+02 2.88883E+02 0.00000E+00 2.73377E-14 5.95949E-15
 -1        15 1.55573E+02 1.55573E+02 2.88883E+02 0.00000E+00-7.75534E-14 1.66142E-14
 -1        16 1.55573E+02 1.55573E+02 2.88883E+02 0.00000E+00 2.96701E-14 2.78597E-14
 -1        17 1.55573E+02 1.55573E+02 2.88883E+02 0.00000E+00-3.24404E-15 1.51637E-14
 -1        18 1.55573E+02 1.55573E+02 2.88883E+02 0.00000E+00 4.06235E-14-5.23320E-14
 -1        19 1.55573E+02 1.55573E+02 2.88883E+02 0.00000E+00 3.48643E-14-7.47241E-15
 -1        20 1.55573E+02 1.55573E+02 2.88883E+02 0.00000E+00 1.53600E-14 2.97906E-14
 -3
    1PSTEP                        13           3           1          
  100CL  103 56.47591672          20                     0    3           1
 -4  TOSTRAIN    6    1
 -5  EXX         1    4    1    1
 -5  EYY         1    4    2    2
 -5  EZZ         1    4    3    3
 -5  EXY         1    4    1    2
 -5  EYZ         1    4    2    3
 -5  EZX         1    4    3    1
 -1         1 0.00000E+00 0.00000E+00 1.99992E-03 0.00000E+00 4.12546E-19 7.19066E-19
 -1         2 0.00000E+00 0.00000E+00 1.99992E-03 0.00000E+00-6.48839E-19-8.08690E-19
 -1         3 0.00000E+00 0.00000E+00 1.99992E-03 0.00000E+00-1.00914E-19-1.19850E-18
 -1         4 0.00000E+00 0.00000E+00 1.99992E-03 0.00000E+00-2.30863E-19 1.76134E-18
 -1         5 0.00000E+00 0.00000E+00 1.99992E-03 0.00000E+00 2.96159E-19-2.53224E-19
 -1         6 0.00000E+00 0.00000E+00 1.99992E-03 0.00000E+00-2.13856E-19 8.66809E-21
 -1         7 0.00000E+00 0.00000E+00 1.99992E-03 0.00000E+00 1.93228E-18 1.41309E-18
 -1         8 0.00000E+00 0.00000E+00 1.99992E-03 0.00000E+00-2.93494E-21-3.76507E-19
 -1         9 0.00000E+00 0.00000E+00 2.00010E-03 0.00000E+00-4.18795E-19-2.04593E-19
 -1        10 0.00000E+00 0.00000E+00 2.00010E-03 0.00000E+00 4.40404E-19 3.85247E-19
 -1        11 0.00000E+00 0.00000E+00 2.00010E-03 0.00000E+00 2.54597E-19 2.23763E-19
 -1        12 0.00000E+00 0.00000E+00 2.00010E-03 0.00000E+00 2.42075E-19 1.71784E-19
 -1        13 0.00000E+00 0.00000E+00 2.00010E-03 0.00000E+00-1.72104E-19-2.53389E-20
 -1        14 0.00000E+00 0.00000E+00 2.00010E-03 0.00000E+00 4.10158E-19 8.94127E-20
 -1        15 0.00000E+00 0.00000E+00 2.00010E-03 0.00000E+00-1.16356E-18 2.49269E-19
 -1        16 0.00000E+00 0.00000E+00 2.00010E-03 0.00000E+00 4.45153E-19 4.17991E-19
 -1        17 0.00000E+00 0.00000E+00 2.00010E-03 0.00000E+00-4.86716E-20 2.27507E-19
 -1        18 0.00000E+00 0.00000E+00 2.00010E-03 0.00000E+00 6.09490E-19-7.85158E-19
 -1        19 0.00000E+00 0.00000E+00 2.00010E-03 0.00000E+00 5.23083E-19-1.12112E-19
 -1        20 0.00000E+00 0.00000E+00 2.00010E-03 0.00000E+00 2.30452E-19 4.46960E-19
 -3
    1PSTEP                        14           3           1          
  100CL  103 56.47591672          20                     0    3           1
 -4  FORC        4    1
 -5  F1          1    2    1    0
 -5  F2          1    2    2    0
 -5  F3          1    2    3    0
 -5  ALL         1    2    0    0    1ALL
 -1         1-1.29638E+01-1.29638E+01 2.40724E+01
 -1         2-1.29638E+01 1.29638E+01 2.40724E+01
 -1         3-1.29638E+01 1.29638E+01-2.40724E+01
 -1         4-1.29638E+01-1.29638E+01-2.40724E+01
 -1         5 1.29638E+01-1.29638E+01 2.40724E+01
 -1         6 1.29638E+01 1.29638E+01 2.40724E+01
 -1         7 1.29638E+01 1.29638E+01-2.40724E+01
 -1         8 1.29638E+01-1.29638E+01-2.40724E+01
 -1         9 5.18552E+01-7.84470E-15-9.62896E+01
 -1        10 5.18552E+01-5.18552E+01-1.99840E-15
 -1        11 5.18552E+01 7.15081E-15 9.62896E+01
 -1        12 5.18552E+01 5.18552E+01 2.00395E-14
 -1        13 2.18903E-15 5.18552E+01-9.62896E+01
 -1        14 8.19032E-15-5.18552E+01-9.62896E+01
 -1        15-3.30534E-15-5.18552E+01 9.62896E+01
 -1        16-1.52289E-15 5.18552E+01 9.62896E+01
 -1        17-5.18552E+01-3.57319E-16-9.62896E+01
 -1        18-5.18552E+01-5.18552E+01-1.77636E-15
 -1        19-5.18552E+01 3.57319E-16 9.62896E+01
 -1        20-5.18552E+01 5.18552E+01 0.00000E+00
 -3
    1PSTEP                        15           3           1          
  100CL  103 56.47591672          20                     0    3           1
 -4  ERROR       1    1
 -5  STR(%)      1    1    0    0
 -1         1 1.10718E-14
 -1         2 1.10718E-14
 -1         3 1.10718E-14
 -1         4 1.10718E-14
 -1         5 1.10718E-14
 -1         6 1.10718E-14
 -1         7 1.10718E-14
 -1         8 1.10718E-14
 -1         9 1.10718E-14
 -1        10 1.10718E-14
 -1        11 1.10718E-14
 -1        12 1.10718E-14
 -1        13 1.10718E-14
 -1        14 1.10718E-14
 -1        15 1.10718E-14
 -1        16 1.10718E-14
 -1        17 1.10718E-14
 -1        18 1.10718E-14
 -1        19 1.10718E-14
 -1        20 1.10718E-14
 -3
    1PSTEP                        16           4           1          
  100CL  104 92.78186318          20                     0    4           1
 -4  DISP        4    1
 -5  D1          1    2    1    0
 -5  D2          1    2    2    0
 -5  D3          1    2    3    0
 -5  ALL         1    2    0    0    1ALL
 -1         1 0.00000E+00 0.00000E+00 0.00000E+00
 -1         2 0.00000E+00 0.00000E+00 0.00000E+00
 -1         3 0.00000E+00 0.00000E+00 2.00000E-03
 -1         4 0.00000E+00 0.00000E+00 2.00000E-03
 -1         5 0.00000E+00 0.00000E+00 0.00000E+00
 -1         6 0.00000E+00 0.00000E+00 0.00000E+00
 -1         7 0.00000E+00 0.00000E+00 2.00000E-03
 -1         8 0.00000E+00 0.00000E+00 2.00000E-03
 -1         9 0.00000E+00 0.00000E+00 0.00000E+00
 -1        10 0.00000E+00 0.00000E+00 1.00000E-03
 -1        11 0.00000E+00 0.00000E+00 2.00000E-03
 -1        12 0.00000E+00 0.00000E+00 1.00000E-03
 -1        13 0.00000E+00 0.00000E+00 0.00000E+00
 -1        14 0.00000E+00 0.00000E+00 0.00000E+00
 -1        15 0.00000E+00 0.00000E+00 2.00000E-03
 -1        16 0.00000E+00 0.00000E+00 2.00000E-03
 -1        17 0.00000E+00 0.00000E+00 0.00000E+00
 -1        18 0.00000E+00 0.00000E+00 1.00000E-03
 -1        19 0.00000E+00 0.00000E+00 2.00000E-03
 -1        20 0.00000E+00 0.00000E+00 1.00000E-03
 -3
    1PSTEP                        17           4           1          
  100CL  104 92.78186318          20                     0    4           1
 -4  STRESS      6    1
 -5  SXX         1    4    1    1
 -5  SYY         1    4    2    2
 -5  SZZ         1    4    3    3
 -5  SXY         1    4    1    2
 -5  SYZ         1    4    2    3
 -5  SZX         1    4    3    1
 -1         1 1.55566E+02 1.55566E+02 2.88844E+02 0.00000E+00 2.74928E-14 4.79198E-14
 -1         2 1.55566E+02 1.55566E+02 2.88844E+02 0.00000E+00-4.32398E-14-5.38925E-14
 -1         3 1.55566E+02 1.55566E+02 2.88844E+02 0.00000E+00-6.72507E-15-7.98703E-14
 -1         4 1.55566E+02 1.55566E+02 2.88844E+02 0.00000E+00-1.53851E-14 1.17379E-13
 -1         5 1.55566E+02 1.55566E+02 2.88844E+02 0.00000E+00 1.97365E-14-1.68753E-14
 -1         6 1.55566E+02 1.55566E+02 2.88844E+02 0.00000E+00-1.42518E-14 5.77657E-16
 -1         7 1.55566E+02 1.55566E+02 2.88844E+02 0.00000E+00 1.28771E-13 9.41706E-14
 -1         8 1.55566E+02 1.55566E+02 2.88844E+02 0.00000E+00-1.95589E-16-2.50911E-14
 -1         9 1.55580E+02 1.55580E+02 2.88870E+02 0.00000E+00-2.79093E-14-1.36344E-14
 -1        10 1.55580E+02 1.55580E+02 2.88870E+02 0.00000E+00 2.93493E-14 2.56736E-14
 -1        11 1.55580E+02 1.55580E+02 2.88870E+02 0.00000E+00 1.69668E-14 1.49120E-14
 -1        12 1.55580E+02 1.55580E+02 2.88870E+02 0.00000E+00 1.61323E-14 1.14480E-14
 -1        13 1.55580E+02 1.55580E+02 2.88870E+02 0.00000E+00-1.14693E-14-1.68863E-15
 -1        14 1.55580E+02 1.55580E+02 2.88870E+02 0.00000E+00 2.73337E-14 5.95862E-15
 -1        15 1.55580E+02 1.55580E+02 2.88870E+02 0.00000E+00-7.75421E-14 1.66117E-14
 -1        16 1.55580E+02 1.55580E+02 2.88870E+02 0.00000E+00 2.96658E-14 2.78557E-14
 -1        17 1.55580E+02 1.55580E+02 2.88870E+02 0.00000E+00-3.24356E-15 1.51615E-14
 -1        18 1.55580E+02 1.55580E+02 2.88870E+02 0.00000E+00 4.06175E-14-5.23244E-14
 -1        19 1.55580E+02 1.55580E+02 2.88870E+02 0.00000E+00 3.48592E-14-7.47132E-15
 -1        20 1.55580E+02 1.55580E+02 2.88870E+02 0.00000E+00 1.53577E-14 2.97862E-14
 -3
    1PSTEP                        18           4           1          
  100CL  104 92.78186318          20                     0    4           1
 -4  TOSTRAIN    6    1
 -5  EXX         1    4    1    1
 -5  EYY         1    4    2    2
 -5  EZZ         1    4    3    3
 -5  EXY         1    4    1    2
 -5  EYZ         1    4    2    3
 -5  EZX         1    4    3    1
 -1         1 0.00000E+00 0.00000E+00 1.99992E-03 0.00000E+00 4.12546E-19 7.19066E-19
 -1         2 0.00000E+00 0.00000E+00 1.99992E-03 0.00000E+00-6.48839E-19-8.08690E-19
 -1         3 0.00000E+00 0.00000E+00 1.99992E-03 0.00000E+00-1.00914E-19-1.19850E-18
 -1         4 0.00000E+00 0.00000E+00 1.99992E-03 0.00000E+00-2.30863E-19 1.76134E-18
 -1         5 0.00000E+00 0.00000E+00 1.99992E-03 0.00000E+00 2.96159E-19-2.53224E-19
 -1         6 0.00000E+00 0.00000E+00 1.99992E-03 0.00000E+00-2.13856E-19 8.66809E-21
 -1         7 0.00000E+00 0.00000E+00 1.99992E-03 0.00000E+00 1.93228E-18 1.41309E-18
 -1         8 0.00000E+00 0.00000E+00 1.99992E-03 0.00000E+00-2.93494E-21-3.76507E-19
 -1         9 0.00000E+00 0.00000E+00 2.00010E-03 0.00000E+00-4.18795E-19-2.04593E-19
 -1        10 0.00000E+00 0.00000E+00 2.00010E-03 0.00000E+00 4.40404E-19 3.85247E-19
 -1        11 0.00000E+00 0.00000E+00 2.00010E-03 0.00000E+00 2.54597E-19 2.23763E-19
 -1        12 0.00000E+00 0.00000E+00 2.00010E-03 0.00000E+00 2.42075E-19 1.71784E-19
 -1        13 0.00000E+00 0.00000E+00 2.00010E-03 0.00000E+00-1.72104E-19-2.53389E-20
 -1        14 0.00000E+00 0.00000E+00 2.00010E-03 0.00000E+00 4.10158E-19 8.94127E-20
 -1        15 0.00000E+00 0.00000E+00 2.00010E-03 0.00000E+00-1.16356E-18 2.49269E-19
 -1        16 0.00000E+00 0.00000E+00 2.00010E-03 0.00000E+00 4.45153E-19 4.17991E-19